Program Version,EnergyPlus, Version 9.6.0-316f894e91, YMD=2025.07.25 01:56
1,5,Environment Title[],Latitude[deg],Longitude[deg],Time Zone[],Elevation[m]
2,8,Day of Simulation[],Month[],Day of Month[],DST Indicator[1=yes 0=no],Hour[],StartMinute[],EndMinute[],DayType
3,5,Cumulative Day of Simulation[],Month[],Day of Month[],DST Indicator[1=yes 0=no],DayType  ! When Daily Meters Requested
4,2,Cumulative Days of Simulation[],Month[]  ! When Monthly Meters Requested
5,1,Cumulative Days of Simulation[] ! When Run Period Meters Requested
6,1,Calendar Year of Simulation[] ! When Annual Meters Requested
24,1,Electricity:Facility [J] !Hourly
768,1,InteriorLights:Electricity [J] !Hourly
4041,1,InteriorEquipment:Electricity [J] !Hourly
End of Data Dictionary
1,SPAWN-RUNPERIOD,  39.72,-104.75,  -7.00,1726.00
2,1, 1, 1, 0, 1, 0.00,60.00,Holiday
24,102709050.0553154
768,9653062.50295072
4041,41438640.35236474
2,1, 1, 1, 0, 2, 0.00,60.00,Holiday
24,102709050.0553154
768,9653062.50295072
4041,41438640.35236474
2,1, 1, 1, 0, 3, 0.00,60.00,Holiday
24,102709050.0553154
768,9653062.50295072
4041,41438640.35236474
2,1, 1, 1, 0, 4, 0.00,60.00,Holiday
24,102709050.0553154
768,9653062.50295072
4041,41438640.35236474
2,1, 1, 1, 0, 5, 0.00,60.00,Holiday
24,102709050.0553154
768,9653062.50295072
4041,41438640.35236474
2,1, 1, 1, 0, 6, 0.00,60.00,Holiday
24,102709050.0553154
768,9653062.50295072
4041,41438640.35236474
2,1, 1, 1, 0, 7, 0.00,60.00,Holiday
24,102709050.0553154
768,9653062.50295072
4041,41438640.35236474
2,1, 1, 1, 0, 8, 0.00,60.00,Holiday
24,68297485.25531544
768,9653062.50295072
4041,41438640.35236474
2,1, 1, 1, 0, 9, 0.00,60.00,Holiday
24,51091702.85531546
768,9653062.50295072
4041,41438640.35236474
2,1, 1, 1, 0,10, 0.00,60.00,Holiday
24,51091702.85531546
768,9653062.50295072
4041,41438640.35236474
2,1, 1, 1, 0,11, 0.00,60.00,Holiday
24,51091702.85531546
768,9653062.50295072
4041,41438640.35236474
2,1, 1, 1, 0,12, 0.00,60.00,Holiday
24,51091702.85531546
768,9653062.50295072
4041,41438640.35236474
2,1, 1, 1, 0,13, 0.00,60.00,Holiday
24,51091702.85531546
768,9653062.50295072
4041,41438640.35236474
2,1, 1, 1, 0,14, 0.00,60.00,Holiday
24,51091702.85531546
768,9653062.50295072
4041,41438640.35236474
2,1, 1, 1, 0,15, 0.00,60.00,Holiday
24,51091702.85531546
768,9653062.50295072
4041,41438640.35236474
2,1, 1, 1, 0,16, 0.00,60.00,Holiday
24,51091702.85531546
768,9653062.50295072
4041,41438640.35236474
2,1, 1, 1, 0,17, 0.00,60.00,Holiday
24,76900376.45531544
768,9653062.50295072
4041,41438640.35236474
2,1, 1, 1, 0,18, 0.00,60.00,Holiday
24,102709050.0553154
768,9653062.50295072
4041,41438640.35236474
2,1, 1, 1, 0,19, 0.00,60.00,Holiday
24,102709050.0553154
768,9653062.50295072
4041,41438640.35236474
2,1, 1, 1, 0,20, 0.00,60.00,Holiday
24,102709050.0553154
768,9653062.50295072
4041,41438640.35236474
2,1, 1, 1, 0,21, 0.00,60.00,Holiday
24,102709050.0553154
768,9653062.50295072
4041,41438640.35236474
2,1, 1, 1, 0,22, 0.00,60.00,Holiday
24,102709050.0553154
768,9653062.50295072
4041,41438640.35236474
2,1, 1, 1, 0,23, 0.00,60.00,Holiday
24,102709050.0553154
768,9653062.50295072
4041,41438640.35236474
2,1, 1, 1, 0,24, 0.00,60.00,Holiday
24,102709050.0553154
768,9653062.50295072
4041,41438640.35236474
2,2, 1, 2, 0, 1, 0.00,60.00,Monday
24,116133370.17277035
768,9653062.50295072
4041,54862960.46981965
2,2, 1, 2, 0, 2, 0.00,60.00,Monday
24,116133370.17277035
768,9653062.50295072
4041,54862960.46981965
2,2, 1, 2, 0, 3, 0.00,60.00,Monday
24,116133370.17277035
768,9653062.50295072
4041,54862960.46981965
2,2, 1, 2, 0, 4, 0.00,60.00,Monday
24,116133370.17277035
768,9653062.50295072
4041,54862960.46981965
2,2, 1, 2, 0, 5, 0.00,60.00,Monday
24,116133370.17277035
768,9653062.50295072
4041,54862960.46981965
2,2, 1, 2, 0, 6, 0.00,60.00,Monday
24,125786432.67572114
768,19306125.00590144
4041,54862960.46981965
2,2, 1, 2, 0, 7, 0.00,60.00,Monday
24,125786432.67572114
768,19306125.00590144
4041,54862960.46981965
2,2, 1, 2, 0, 8, 0.00,60.00,Monday
24,170445579.42598554
768,57918375.017704286
4041,95321422.0082812
2,2, 1, 2, 0, 9, 0.00,60.00,Monday
24,375500653.1431746
768,173755125.05311295
4041,201745528.09006125
2,2, 1, 2, 0,10, 0.00,60.00,Monday
24,345445796.00031745
768,173755125.05311295
4041,171690670.94720405
2,2, 1, 2, 0,11, 0.00,60.00,Monday
24,338510059.7365812
768,173755125.05311295
4041,164754934.68346778
2,2, 1, 2, 0,12, 0.00,60.00,Monday
24,345445796.00031745
768,173755125.05311295
4041,171690670.94720405
2,2, 1, 2, 0,13, 0.00,60.00,Monday
24,349360816.5422029
768,173755125.05311295
4041,175605691.48908973
2,2, 1, 2, 0,14, 0.00,60.00,Monday
24,351225576.2200977
768,173755125.05311295
4041,177470451.16698432
2,2, 1, 2, 0,15, 0.00,60.00,Monday
24,338510059.7365812
768,173755125.05311295
4041,164754934.68346778
2,2, 1, 2, 0,16, 0.00,60.00,Monday
24,338510059.7365812
768,173755125.05311295
4041,164754934.68346778
2,2, 1, 2, 0,17, 0.00,60.00,Monday
24,366119446.53218555
768,173755125.05311295
4041,175158539.07907218
2,2, 1, 2, 0,18, 0.00,60.00,Monday
24,288104527.54205656
768,96530625.0295071
4041,139956555.3125493
2,2, 1, 2, 0,19, 0.00,60.00,Monday
24,178270155.2149966
768,57918375.017704286
4041,68734432.99729216
2,2, 1, 2, 0,20, 0.00,60.00,Monday
24,169022506.86334828
768,57918375.017704286
4041,59486784.645643815
2,2, 1, 2, 0,21, 0.00,60.00,Monday
24,149716381.85744673
768,38612250.01180288
4041,59486784.645643815
2,2, 1, 2, 0,22, 0.00,60.00,Monday
24,145092557.68162256
768,38612250.01180288
4041,54862960.46981965
2,2, 1, 2, 0,23, 0.00,60.00,Monday
24,125786432.67572114
768,19306125.00590144
4041,54862960.46981965
2,2, 1, 2, 0,24, 0.00,60.00,Monday
24,116133370.17277035
768,9653062.50295072
4041,54862960.46981965
2,3, 1, 3, 0, 1, 0.00,60.00,Tuesday
24,116133370.17277035
768,9653062.50295072
4041,54862960.46981965
2,3, 1, 3, 0, 2, 0.00,60.00,Tuesday
24,116133370.17277035
768,9653062.50295072
4041,54862960.46981965
2,3, 1, 3, 0, 3, 0.00,60.00,Tuesday
24,116133370.17277035
768,9653062.50295072
4041,54862960.46981965
2,3, 1, 3, 0, 4, 0.00,60.00,Tuesday
24,116133370.17277035
768,9653062.50295072
4041,54862960.46981965
2,3, 1, 3, 0, 5, 0.00,60.00,Tuesday
24,116133370.17277035
768,9653062.50295072
4041,54862960.46981965
2,3, 1, 3, 0, 6, 0.00,60.00,Tuesday
24,125786432.67572114
768,19306125.00590144
4041,54862960.46981965
2,3, 1, 3, 0, 7, 0.00,60.00,Tuesday
24,125786432.67572114
768,19306125.00590144
4041,54862960.46981965
2,3, 1, 3, 0, 8, 0.00,60.00,Tuesday
24,170445579.42598554
768,57918375.017704286
4041,95321422.0082812
2,3, 1, 3, 0, 9, 0.00,60.00,Tuesday
24,375500653.1431746
768,173755125.05311295
4041,201745528.09006125
2,3, 1, 3, 0,10, 0.00,60.00,Tuesday
24,345445796.00031745
768,173755125.05311295
4041,171690670.94720405
2,3, 1, 3, 0,11, 0.00,60.00,Tuesday
24,338510059.7365812
768,173755125.05311295
4041,164754934.68346778
2,3, 1, 3, 0,12, 0.00,60.00,Tuesday
24,345445796.00031745
768,173755125.05311295
4041,171690670.94720405
2,3, 1, 3, 0,13, 0.00,60.00,Tuesday
24,349360816.5422029
768,173755125.05311295
4041,175605691.48908973
2,3, 1, 3, 0,14, 0.00,60.00,Tuesday
24,351225576.2200977
768,173755125.05311295
4041,177470451.16698432
2,3, 1, 3, 0,15, 0.00,60.00,Tuesday
24,338510059.7365812
768,173755125.05311295
4041,164754934.68346778
2,3, 1, 3, 0,16, 0.00,60.00,Tuesday
24,338510059.7365812
768,173755125.05311295
4041,164754934.68346778
2,3, 1, 3, 0,17, 0.00,60.00,Tuesday
24,366119446.53218555
768,173755125.05311295
4041,175158539.07907218
2,3, 1, 3, 0,18, 0.00,60.00,Tuesday
24,288104527.54205656
768,96530625.0295071
4041,139956555.3125493
2,3, 1, 3, 0,19, 0.00,60.00,Tuesday
24,178270155.2149966
768,57918375.017704286
4041,68734432.99729216
2,3, 1, 3, 0,20, 0.00,60.00,Tuesday
24,169022506.86334828
768,57918375.017704286
4041,59486784.645643815
2,3, 1, 3, 0,21, 0.00,60.00,Tuesday
24,149716381.85744673
768,38612250.01180288
4041,59486784.645643815
2,3, 1, 3, 0,22, 0.00,60.00,Tuesday
24,145092557.68162256
768,38612250.01180288
4041,54862960.46981965
2,3, 1, 3, 0,23, 0.00,60.00,Tuesday
24,125786432.67572114
768,19306125.00590144
4041,54862960.46981965
2,3, 1, 3, 0,24, 0.00,60.00,Tuesday
24,116133370.17277035
768,9653062.50295072
4041,54862960.46981965
2,4, 1, 4, 0, 1, 0.00,60.00,Wednesday
24,116133370.17277035
768,9653062.50295072
4041,54862960.46981965
2,4, 1, 4, 0, 2, 0.00,60.00,Wednesday
24,116133370.17277035
768,9653062.50295072
4041,54862960.46981965
2,4, 1, 4, 0, 3, 0.00,60.00,Wednesday
24,116133370.17277035
768,9653062.50295072
4041,54862960.46981965
2,4, 1, 4, 0, 4, 0.00,60.00,Wednesday
24,116133370.17277035
768,9653062.50295072
4041,54862960.46981965
2,4, 1, 4, 0, 5, 0.00,60.00,Wednesday
24,116133370.17277035
768,9653062.50295072
4041,54862960.46981965
2,4, 1, 4, 0, 6, 0.00,60.00,Wednesday
24,125786432.67572114
768,19306125.00590144
4041,54862960.46981965
2,4, 1, 4, 0, 7, 0.00,60.00,Wednesday
24,125786432.67572114
768,19306125.00590144
4041,54862960.46981965
2,4, 1, 4, 0, 8, 0.00,60.00,Wednesday
24,170445579.42598554
768,57918375.017704286
4041,95321422.0082812
2,4, 1, 4, 0, 9, 0.00,60.00,Wednesday
24,375500653.1431746
768,173755125.05311295
4041,201745528.09006125
2,4, 1, 4, 0,10, 0.00,60.00,Wednesday
24,345445796.00031745
768,173755125.05311295
4041,171690670.94720405
2,4, 1, 4, 0,11, 0.00,60.00,Wednesday
24,338510059.7365812
768,173755125.05311295
4041,164754934.68346778
2,4, 1, 4, 0,12, 0.00,60.00,Wednesday
24,345445796.00031745
768,173755125.05311295
4041,171690670.94720405
2,4, 1, 4, 0,13, 0.00,60.00,Wednesday
24,349360816.5422029
768,173755125.05311295
4041,175605691.48908973
2,4, 1, 4, 0,14, 0.00,60.00,Wednesday
24,351225576.2200977
768,173755125.05311295
4041,177470451.16698432
2,4, 1, 4, 0,15, 0.00,60.00,Wednesday
24,338510059.7365812
768,173755125.05311295
4041,164754934.68346778
2,4, 1, 4, 0,16, 0.00,60.00,Wednesday
24,338510059.7365812
768,173755125.05311295
4041,164754934.68346778
2,4, 1, 4, 0,17, 0.00,60.00,Wednesday
24,366119446.53218555
768,173755125.05311295
4041,175158539.07907218
2,4, 1, 4, 0,18, 0.00,60.00,Wednesday
24,288104527.54205656
768,96530625.0295071
4041,139956555.3125493
2,4, 1, 4, 0,19, 0.00,60.00,Wednesday
24,178270155.2149966
768,57918375.017704286
4041,68734432.99729216
2,4, 1, 4, 0,20, 0.00,60.00,Wednesday
24,169022506.86334828
768,57918375.017704286
4041,59486784.645643815
2,4, 1, 4, 0,21, 0.00,60.00,Wednesday
24,149716381.85744673
768,38612250.01180288
4041,59486784.645643815
2,4, 1, 4, 0,22, 0.00,60.00,Wednesday
24,145092557.68162256
768,38612250.01180288
4041,54862960.46981965
2,4, 1, 4, 0,23, 0.00,60.00,Wednesday
24,125786432.67572114
768,19306125.00590144
4041,54862960.46981965
2,4, 1, 4, 0,24, 0.00,60.00,Wednesday
24,116133370.17277035
768,9653062.50295072
4041,54862960.46981965
2,5, 1, 5, 0, 1, 0.00,60.00,Thursday
24,116133370.17277035
768,9653062.50295072
4041,54862960.46981965
2,5, 1, 5, 0, 2, 0.00,60.00,Thursday
24,116133370.17277035
768,9653062.50295072
4041,54862960.46981965
2,5, 1, 5, 0, 3, 0.00,60.00,Thursday
24,116133370.17277035
768,9653062.50295072
4041,54862960.46981965
2,5, 1, 5, 0, 4, 0.00,60.00,Thursday
24,116133370.17277035
768,9653062.50295072
4041,54862960.46981965
2,5, 1, 5, 0, 5, 0.00,60.00,Thursday
24,116133370.17277035
768,9653062.50295072
4041,54862960.46981965
2,5, 1, 5, 0, 6, 0.00,60.00,Thursday
24,125786432.67572114
768,19306125.00590144
4041,54862960.46981965
2,5, 1, 5, 0, 7, 0.00,60.00,Thursday
24,125786432.67572114
768,19306125.00590144
4041,54862960.46981965
2,5, 1, 5, 0, 8, 0.00,60.00,Thursday
24,170445579.42598554
768,57918375.017704286
4041,95321422.0082812
2,5, 1, 5, 0, 9, 0.00,60.00,Thursday
24,375500653.1431746
768,173755125.05311295
4041,201745528.09006125
2,5, 1, 5, 0,10, 0.00,60.00,Thursday
24,345445796.00031745
768,173755125.05311295
4041,171690670.94720405
2,5, 1, 5, 0,11, 0.00,60.00,Thursday
24,338510059.7365812
768,173755125.05311295
4041,164754934.68346778
2,5, 1, 5, 0,12, 0.00,60.00,Thursday
24,345445796.00031745
768,173755125.05311295
4041,171690670.94720405
2,5, 1, 5, 0,13, 0.00,60.00,Thursday
24,349360816.5422029
768,173755125.05311295
4041,175605691.48908973
2,5, 1, 5, 0,14, 0.00,60.00,Thursday
24,351225576.2200977
768,173755125.05311295
4041,177470451.16698432
2,5, 1, 5, 0,15, 0.00,60.00,Thursday
24,338510059.7365812
768,173755125.05311295
4041,164754934.68346778
2,5, 1, 5, 0,16, 0.00,60.00,Thursday
24,338510059.7365812
768,173755125.05311295
4041,164754934.68346778
2,5, 1, 5, 0,17, 0.00,60.00,Thursday
24,366119446.53218555
768,173755125.05311295
4041,175158539.07907218
2,5, 1, 5, 0,18, 0.00,60.00,Thursday
24,288104527.54205656
768,96530625.0295071
4041,139956555.3125493
2,5, 1, 5, 0,19, 0.00,60.00,Thursday
24,178270155.2149966
768,57918375.017704286
4041,68734432.99729216
2,5, 1, 5, 0,20, 0.00,60.00,Thursday
24,169022506.86334828
768,57918375.017704286
4041,59486784.645643815
2,5, 1, 5, 0,21, 0.00,60.00,Thursday
24,149716381.85744673
768,38612250.01180288
4041,59486784.645643815
2,5, 1, 5, 0,22, 0.00,60.00,Thursday
24,145092557.68162256
768,38612250.01180288
4041,54862960.46981965
2,5, 1, 5, 0,23, 0.00,60.00,Thursday
24,125786432.67572114
768,19306125.00590144
4041,54862960.46981965
2,5, 1, 5, 0,24, 0.00,60.00,Thursday
24,116133370.17277035
768,9653062.50295072
4041,54862960.46981965
2,6, 1, 6, 0, 1, 0.00,60.00,Friday
24,116133370.17277035
768,9653062.50295072
4041,54862960.46981965
2,6, 1, 6, 0, 2, 0.00,60.00,Friday
24,116133370.17277035
768,9653062.50295072
4041,54862960.46981965
2,6, 1, 6, 0, 3, 0.00,60.00,Friday
24,116133370.17277035
768,9653062.50295072
4041,54862960.46981965
2,6, 1, 6, 0, 4, 0.00,60.00,Friday
24,116133370.17277035
768,9653062.50295072
4041,54862960.46981965
2,6, 1, 6, 0, 5, 0.00,60.00,Friday
24,116133370.17277035
768,9653062.50295072
4041,54862960.46981965
2,6, 1, 6, 0, 6, 0.00,60.00,Friday
24,125786432.67572114
768,19306125.00590144
4041,54862960.46981965
2,6, 1, 6, 0, 7, 0.00,60.00,Friday
24,125786432.67572114
768,19306125.00590144
4041,54862960.46981965
2,6, 1, 6, 0, 8, 0.00,60.00,Friday
24,170445579.42598554
768,57918375.017704286
4041,95321422.0082812
2,6, 1, 6, 0, 9, 0.00,60.00,Friday
24,375500653.1431746
768,173755125.05311295
4041,201745528.09006125
2,6, 1, 6, 0,10, 0.00,60.00,Friday
24,345445796.00031745
768,173755125.05311295
4041,171690670.94720405
2,6, 1, 6, 0,11, 0.00,60.00,Friday
24,338510059.7365812
768,173755125.05311295
4041,164754934.68346778
2,6, 1, 6, 0,12, 0.00,60.00,Friday
24,345445796.00031745
768,173755125.05311295
4041,171690670.94720405
2,6, 1, 6, 0,13, 0.00,60.00,Friday
24,349360816.5422029
768,173755125.05311295
4041,175605691.48908973
2,6, 1, 6, 0,14, 0.00,60.00,Friday
24,351225576.2200977
768,173755125.05311295
4041,177470451.16698432
2,6, 1, 6, 0,15, 0.00,60.00,Friday
24,338510059.7365812
768,173755125.05311295
4041,164754934.68346778
2,6, 1, 6, 0,16, 0.00,60.00,Friday
24,338510059.7365812
768,173755125.05311295
4041,164754934.68346778
2,6, 1, 6, 0,17, 0.00,60.00,Friday
24,366119446.53218555
768,173755125.05311295
4041,175158539.07907218
2,6, 1, 6, 0,18, 0.00,60.00,Friday
24,288104527.54205656
768,96530625.0295071
4041,139956555.3125493
2,6, 1, 6, 0,19, 0.00,60.00,Friday
24,178270155.2149966
768,57918375.017704286
4041,68734432.99729216
2,6, 1, 6, 0,20, 0.00,60.00,Friday
24,169022506.86334828
768,57918375.017704286
4041,59486784.645643815
2,6, 1, 6, 0,21, 0.00,60.00,Friday
24,149716381.85744673
768,38612250.01180288
4041,59486784.645643815
2,6, 1, 6, 0,22, 0.00,60.00,Friday
24,145092557.68162256
768,38612250.01180288
4041,54862960.46981965
2,6, 1, 6, 0,23, 0.00,60.00,Friday
24,125786432.67572114
768,19306125.00590144
4041,54862960.46981965
2,6, 1, 6, 0,24, 0.00,60.00,Friday
24,116133370.17277035
768,9653062.50295072
4041,54862960.46981965
2,7, 1, 7, 0, 1, 0.00,60.00,Saturday
24,102709050.0553154
768,9653062.50295072
4041,41438640.35236474
2,7, 1, 7, 0, 2, 0.00,60.00,Saturday
24,102709050.0553154
768,9653062.50295072
4041,41438640.35236474
2,7, 1, 7, 0, 3, 0.00,60.00,Saturday
24,102709050.0553154
768,9653062.50295072
4041,41438640.35236474
2,7, 1, 7, 0, 4, 0.00,60.00,Saturday
24,102709050.0553154
768,9653062.50295072
4041,41438640.35236474
2,7, 1, 7, 0, 5, 0.00,60.00,Saturday
24,102709050.0553154
768,9653062.50295072
4041,41438640.35236474
2,7, 1, 7, 0, 6, 0.00,60.00,Saturday
24,102709050.0553154
768,9653062.50295072
4041,41438640.35236474
2,7, 1, 7, 0, 7, 0.00,60.00,Saturday
24,125786432.67572114
768,19306125.00590144
4041,54862960.46981965
2,7, 1, 7, 0, 8, 0.00,60.00,Saturday
24,109870164.5790178
768,19306125.00590144
4041,73358257.17311633
2,7, 1, 7, 0, 9, 0.00,60.00,Saturday
24,142389040.2203635
768,57918375.017704286
4041,84470665.20265914
2,7, 1, 7, 0,10, 0.00,60.00,Saturday
24,150480732.5280559
768,57918375.017704286
4041,92562357.51035145
2,7, 1, 7, 0,11, 0.00,60.00,Saturday
24,147012864.3961877
768,57918375.017704286
4041,89094489.37848331
2,7, 1, 7, 0,12, 0.00,60.00,Saturday
24,155104556.70388007
768,57918375.017704286
4041,97186181.68617563
2,7, 1, 7, 0,13, 0.00,60.00,Saturday
24,101385064.84302129
768,28959187.508852143
4041,72425877.33416907
2,7, 1, 7, 0,14, 0.00,60.00,Saturday
24,92137416.49137294
768,28959187.508852143
4041,63178228.98252073
2,7, 1, 7, 0,15, 0.00,60.00,Saturday
24,86357636.27159266
768,28959187.508852143
4041,57398448.76274057
2,7, 1, 7, 0,16, 0.00,60.00,Saturday
24,81733812.09576847
768,28959187.508852143
4041,52774624.586916365
2,7, 1, 7, 0,17, 0.00,60.00,Saturday
24,100095550.5397246
768,28959187.508852143
4041,53930580.63087241
2,7, 1, 7, 0,18, 0.00,60.00,Saturday
24,109644786.3190517
768,9653062.50295072
4041,48374376.616101004
2,7, 1, 7, 0,19, 0.00,60.00,Saturday
24,102709050.0553154
768,9653062.50295072
4041,41438640.35236474
2,7, 1, 7, 0,20, 0.00,60.00,Saturday
24,102709050.0553154
768,9653062.50295072
4041,41438640.35236474
2,7, 1, 7, 0,21, 0.00,60.00,Saturday
24,102709050.0553154
768,9653062.50295072
4041,41438640.35236474
2,7, 1, 7, 0,22, 0.00,60.00,Saturday
24,102709050.0553154
768,9653062.50295072
4041,41438640.35236474
2,7, 1, 7, 0,23, 0.00,60.00,Saturday
24,102709050.0553154
768,9653062.50295072
4041,41438640.35236474
2,7, 1, 7, 0,24, 0.00,60.00,Saturday
24,102709050.0553154
768,9653062.50295072
4041,41438640.35236474
2,8, 1, 8, 0, 1, 0.00,60.00,Sunday
24,102709050.0553154
768,9653062.50295072
4041,41438640.35236474
2,8, 1, 8, 0, 2, 0.00,60.00,Sunday
24,102709050.0553154
768,9653062.50295072
4041,41438640.35236474
2,8, 1, 8, 0, 3, 0.00,60.00,Sunday
24,102709050.0553154
768,9653062.50295072
4041,41438640.35236474
2,8, 1, 8, 0, 4, 0.00,60.00,Sunday
24,102709050.0553154
768,9653062.50295072
4041,41438640.35236474
2,8, 1, 8, 0, 5, 0.00,60.00,Sunday
24,102709050.0553154
768,9653062.50295072
4041,41438640.35236474
2,8, 1, 8, 0, 6, 0.00,60.00,Sunday
24,102709050.0553154
768,9653062.50295072
4041,41438640.35236474
2,8, 1, 8, 0, 7, 0.00,60.00,Sunday
24,102709050.0553154
768,9653062.50295072
4041,41438640.35236474
2,8, 1, 8, 0, 8, 0.00,60.00,Sunday
24,68297485.25531544
768,9653062.50295072
4041,41438640.35236474
2,8, 1, 8, 0, 9, 0.00,60.00,Sunday
24,51091702.85531546
768,9653062.50295072
4041,41438640.35236474
2,8, 1, 8, 0,10, 0.00,60.00,Sunday
24,51091702.85531546
768,9653062.50295072
4041,41438640.35236474
2,8, 1, 8, 0,11, 0.00,60.00,Sunday
24,51091702.85531546
768,9653062.50295072
4041,41438640.35236474
2,8, 1, 8, 0,12, 0.00,60.00,Sunday
24,51091702.85531546
768,9653062.50295072
4041,41438640.35236474
2,8, 1, 8, 0,13, 0.00,60.00,Sunday
24,51091702.85531546
768,9653062.50295072
4041,41438640.35236474
2,8, 1, 8, 0,14, 0.00,60.00,Sunday
24,51091702.85531546
768,9653062.50295072
4041,41438640.35236474
2,8, 1, 8, 0,15, 0.00,60.00,Sunday
24,51091702.85531546
768,9653062.50295072
4041,41438640.35236474
2,8, 1, 8, 0,16, 0.00,60.00,Sunday
24,51091702.85531546
768,9653062.50295072
4041,41438640.35236474
2,8, 1, 8, 0,17, 0.00,60.00,Sunday
24,68297485.25531545
768,9653062.50295072
4041,41438640.35236474
2,8, 1, 8, 0,18, 0.00,60.00,Sunday
24,102709050.0553154
768,9653062.50295072
4041,41438640.35236474
2,8, 1, 8, 0,19, 0.00,60.00,Sunday
24,102709050.0553154
768,9653062.50295072
4041,41438640.35236474
2,8, 1, 8, 0,20, 0.00,60.00,Sunday
24,102709050.0553154
768,9653062.50295072
4041,41438640.35236474
2,8, 1, 8, 0,21, 0.00,60.00,Sunday
24,102709050.0553154
768,9653062.50295072
4041,41438640.35236474
2,8, 1, 8, 0,22, 0.00,60.00,Sunday
24,102709050.0553154
768,9653062.50295072
4041,41438640.35236474
2,8, 1, 8, 0,23, 0.00,60.00,Sunday
24,102709050.0553154
768,9653062.50295072
4041,41438640.35236474
2,8, 1, 8, 0,24, 0.00,60.00,Sunday
24,102709050.0553154
768,9653062.50295072
4041,41438640.35236474
2,9, 1, 9, 0, 1, 0.00,60.00,Monday
24,116133370.17277035
768,9653062.50295072
4041,54862960.46981965
2,9, 1, 9, 0, 2, 0.00,60.00,Monday
24,116133370.17277035
768,9653062.50295072
4041,54862960.46981965
2,9, 1, 9, 0, 3, 0.00,60.00,Monday
24,116133370.17277035
768,9653062.50295072
4041,54862960.46981965
2,9, 1, 9, 0, 4, 0.00,60.00,Monday
24,116133370.17277035
768,9653062.50295072
4041,54862960.46981965
2,9, 1, 9, 0, 5, 0.00,60.00,Monday
24,116133370.17277035
768,9653062.50295072
4041,54862960.46981965
2,9, 1, 9, 0, 6, 0.00,60.00,Monday
24,125786432.67572114
768,19306125.00590144
4041,54862960.46981965
2,9, 1, 9, 0, 7, 0.00,60.00,Monday
24,125786432.67572114
768,19306125.00590144
4041,54862960.46981965
2,9, 1, 9, 0, 8, 0.00,60.00,Monday
24,170445579.42598554
768,57918375.017704286
4041,95321422.0082812
2,9, 1, 9, 0, 9, 0.00,60.00,Monday
24,375500653.1431746
768,173755125.05311295
4041,201745528.09006125
2,9, 1, 9, 0,10, 0.00,60.00,Monday
24,345445796.00031745
768,173755125.05311295
4041,171690670.94720405
2,9, 1, 9, 0,11, 0.00,60.00,Monday
24,338510059.7365812
768,173755125.05311295
4041,164754934.68346778
2,9, 1, 9, 0,12, 0.00,60.00,Monday
24,345445796.00031745
768,173755125.05311295
4041,171690670.94720405
2,9, 1, 9, 0,13, 0.00,60.00,Monday
24,349360816.5422029
768,173755125.05311295
4041,175605691.48908973
2,9, 1, 9, 0,14, 0.00,60.00,Monday
24,351225576.2200977
768,173755125.05311295
4041,177470451.16698432
2,9, 1, 9, 0,15, 0.00,60.00,Monday
24,338510059.7365812
768,173755125.05311295
4041,164754934.68346778
2,9, 1, 9, 0,16, 0.00,60.00,Monday
24,338510059.7365812
768,173755125.05311295
4041,164754934.68346778
2,9, 1, 9, 0,17, 0.00,60.00,Monday
24,366119446.53218555
768,173755125.05311295
4041,175158539.07907218
2,9, 1, 9, 0,18, 0.00,60.00,Monday
24,288104527.54205656
768,96530625.0295071
4041,139956555.3125493
2,9, 1, 9, 0,19, 0.00,60.00,Monday
24,178270155.2149966
768,57918375.017704286
4041,68734432.99729216
2,9, 1, 9, 0,20, 0.00,60.00,Monday
24,169022506.86334828
768,57918375.017704286
4041,59486784.645643815
2,9, 1, 9, 0,21, 0.00,60.00,Monday
24,149716381.85744673
768,38612250.01180288
4041,59486784.645643815
2,9, 1, 9, 0,22, 0.00,60.00,Monday
24,145092557.68162256
768,38612250.01180288
4041,54862960.46981965
2,9, 1, 9, 0,23, 0.00,60.00,Monday
24,125786432.67572114
768,19306125.00590144
4041,54862960.46981965
2,9, 1, 9, 0,24, 0.00,60.00,Monday
24,116133370.17277035
768,9653062.50295072
4041,54862960.46981965
2,10, 1,10, 0, 1, 0.00,60.00,Tuesday
24,116133370.17277035
768,9653062.50295072
4041,54862960.46981965
2,10, 1,10, 0, 2, 0.00,60.00,Tuesday
24,116133370.17277035
768,9653062.50295072
4041,54862960.46981965
2,10, 1,10, 0, 3, 0.00,60.00,Tuesday
24,116133370.17277035
768,9653062.50295072
4041,54862960.46981965
2,10, 1,10, 0, 4, 0.00,60.00,Tuesday
24,116133370.17277035
768,9653062.50295072
4041,54862960.46981965
2,10, 1,10, 0, 5, 0.00,60.00,Tuesday
24,116133370.17277035
768,9653062.50295072
4041,54862960.46981965
2,10, 1,10, 0, 6, 0.00,60.00,Tuesday
24,125786432.67572114
768,19306125.00590144
4041,54862960.46981965
2,10, 1,10, 0, 7, 0.00,60.00,Tuesday
24,125786432.67572114
768,19306125.00590144
4041,54862960.46981965
2,10, 1,10, 0, 8, 0.00,60.00,Tuesday
24,170445579.42598554
768,57918375.017704286
4041,95321422.0082812
2,10, 1,10, 0, 9, 0.00,60.00,Tuesday
24,375500653.1431746
768,173755125.05311295
4041,201745528.09006125
2,10, 1,10, 0,10, 0.00,60.00,Tuesday
24,345445796.00031745
768,173755125.05311295
4041,171690670.94720405
2,10, 1,10, 0,11, 0.00,60.00,Tuesday
24,338510059.7365812
768,173755125.05311295
4041,164754934.68346778
2,10, 1,10, 0,12, 0.00,60.00,Tuesday
24,345445796.00031745
768,173755125.05311295
4041,171690670.94720405
2,10, 1,10, 0,13, 0.00,60.00,Tuesday
24,349360816.5422029
768,173755125.05311295
4041,175605691.48908973
2,10, 1,10, 0,14, 0.00,60.00,Tuesday
24,351225576.2200977
768,173755125.05311295
4041,177470451.16698432
2,10, 1,10, 0,15, 0.00,60.00,Tuesday
24,338510059.7365812
768,173755125.05311295
4041,164754934.68346778
2,10, 1,10, 0,16, 0.00,60.00,Tuesday
24,338510059.7365812
768,173755125.05311295
4041,164754934.68346778
2,10, 1,10, 0,17, 0.00,60.00,Tuesday
24,366119446.53218555
768,173755125.05311295
4041,175158539.07907218
2,10, 1,10, 0,18, 0.00,60.00,Tuesday
24,288104527.54205656
768,96530625.0295071
4041,139956555.3125493
2,10, 1,10, 0,19, 0.00,60.00,Tuesday
24,178270155.2149966
768,57918375.017704286
4041,68734432.99729216
2,10, 1,10, 0,20, 0.00,60.00,Tuesday
24,169022506.86334828
768,57918375.017704286
4041,59486784.645643815
2,10, 1,10, 0,21, 0.00,60.00,Tuesday
24,149716381.85744673
768,38612250.01180288
4041,59486784.645643815
2,10, 1,10, 0,22, 0.00,60.00,Tuesday
24,145092557.68162256
768,38612250.01180288
4041,54862960.46981965
2,10, 1,10, 0,23, 0.00,60.00,Tuesday
24,125786432.67572114
768,19306125.00590144
4041,54862960.46981965
2,10, 1,10, 0,24, 0.00,60.00,Tuesday
24,116133370.17277035
768,9653062.50295072
4041,54862960.46981965
2,11, 1,11, 0, 1, 0.00,60.00,Wednesday
24,116133370.17277035
768,9653062.50295072
4041,54862960.46981965
2,11, 1,11, 0, 2, 0.00,60.00,Wednesday
24,116133370.17277035
768,9653062.50295072
4041,54862960.46981965
2,11, 1,11, 0, 3, 0.00,60.00,Wednesday
24,116133370.17277035
768,9653062.50295072
4041,54862960.46981965
2,11, 1,11, 0, 4, 0.00,60.00,Wednesday
24,116133370.17277035
768,9653062.50295072
4041,54862960.46981965
2,11, 1,11, 0, 5, 0.00,60.00,Wednesday
24,116133370.17277035
768,9653062.50295072
4041,54862960.46981965
2,11, 1,11, 0, 6, 0.00,60.00,Wednesday
24,125786432.67572114
768,19306125.00590144
4041,54862960.46981965
2,11, 1,11, 0, 7, 0.00,60.00,Wednesday
24,125786432.67572114
768,19306125.00590144
4041,54862960.46981965
2,11, 1,11, 0, 8, 0.00,60.00,Wednesday
24,170445579.42598554
768,57918375.017704286
4041,95321422.0082812
2,11, 1,11, 0, 9, 0.00,60.00,Wednesday
24,375500653.1431746
768,173755125.05311295
4041,201745528.09006125
2,11, 1,11, 0,10, 0.00,60.00,Wednesday
24,345445796.00031745
768,173755125.05311295
4041,171690670.94720405
2,11, 1,11, 0,11, 0.00,60.00,Wednesday
24,338510059.7365812
768,173755125.05311295
4041,164754934.68346778
2,11, 1,11, 0,12, 0.00,60.00,Wednesday
24,345445796.00031745
768,173755125.05311295
4041,171690670.94720405
2,11, 1,11, 0,13, 0.00,60.00,Wednesday
24,349360816.5422029
768,173755125.05311295
4041,175605691.48908973
2,11, 1,11, 0,14, 0.00,60.00,Wednesday
24,351225576.2200977
768,173755125.05311295
4041,177470451.16698432
2,11, 1,11, 0,15, 0.00,60.00,Wednesday
24,338510059.7365812
768,173755125.05311295
4041,164754934.68346778
2,11, 1,11, 0,16, 0.00,60.00,Wednesday
24,338510059.7365812
768,173755125.05311295
4041,164754934.68346778
2,11, 1,11, 0,17, 0.00,60.00,Wednesday
24,366119446.53218555
768,173755125.05311295
4041,175158539.07907218
2,11, 1,11, 0,18, 0.00,60.00,Wednesday
24,288104527.54205656
768,96530625.0295071
4041,139956555.3125493
2,11, 1,11, 0,19, 0.00,60.00,Wednesday
24,178270155.2149966
768,57918375.017704286
4041,68734432.99729216
2,11, 1,11, 0,20, 0.00,60.00,Wednesday
24,169022506.86334828
768,57918375.017704286
4041,59486784.645643815
2,11, 1,11, 0,21, 0.00,60.00,Wednesday
24,149716381.85744673
768,38612250.01180288
4041,59486784.645643815
2,11, 1,11, 0,22, 0.00,60.00,Wednesday
24,145092557.68162256
768,38612250.01180288
4041,54862960.46981965
2,11, 1,11, 0,23, 0.00,60.00,Wednesday
24,125786432.67572114
768,19306125.00590144
4041,54862960.46981965
2,11, 1,11, 0,24, 0.00,60.00,Wednesday
24,116133370.17277035
768,9653062.50295072
4041,54862960.46981965
2,12, 1,12, 0, 1, 0.00,60.00,Thursday
24,116133370.17277035
768,9653062.50295072
4041,54862960.46981965
2,12, 1,12, 0, 2, 0.00,60.00,Thursday
24,116133370.17277035
768,9653062.50295072
4041,54862960.46981965
2,12, 1,12, 0, 3, 0.00,60.00,Thursday
24,116133370.17277035
768,9653062.50295072
4041,54862960.46981965
2,12, 1,12, 0, 4, 0.00,60.00,Thursday
24,116133370.17277035
768,9653062.50295072
4041,54862960.46981965
2,12, 1,12, 0, 5, 0.00,60.00,Thursday
24,116133370.17277035
768,9653062.50295072
4041,54862960.46981965
2,12, 1,12, 0, 6, 0.00,60.00,Thursday
24,125786432.67572114
768,19306125.00590144
4041,54862960.46981965
2,12, 1,12, 0, 7, 0.00,60.00,Thursday
24,125786432.67572114
768,19306125.00590144
4041,54862960.46981965
2,12, 1,12, 0, 8, 0.00,60.00,Thursday
24,170445579.42598554
768,57918375.017704286
4041,95321422.0082812
2,12, 1,12, 0, 9, 0.00,60.00,Thursday
24,375500653.1431746
768,173755125.05311295
4041,201745528.09006125
2,12, 1,12, 0,10, 0.00,60.00,Thursday
24,345445796.00031745
768,173755125.05311295
4041,171690670.94720405
2,12, 1,12, 0,11, 0.00,60.00,Thursday
24,338510059.7365812
768,173755125.05311295
4041,164754934.68346778
2,12, 1,12, 0,12, 0.00,60.00,Thursday
24,345445796.00031745
768,173755125.05311295
4041,171690670.94720405
2,12, 1,12, 0,13, 0.00,60.00,Thursday
24,349360816.5422029
768,173755125.05311295
4041,175605691.48908973
2,12, 1,12, 0,14, 0.00,60.00,Thursday
24,351225576.2200977
768,173755125.05311295
4041,177470451.16698432
2,12, 1,12, 0,15, 0.00,60.00,Thursday
24,338510059.7365812
768,173755125.05311295
4041,164754934.68346778
2,12, 1,12, 0,16, 0.00,60.00,Thursday
24,338510059.7365812
768,173755125.05311295
4041,164754934.68346778
2,12, 1,12, 0,17, 0.00,60.00,Thursday
24,366119446.53218555
768,173755125.05311295
4041,175158539.07907218
2,12, 1,12, 0,18, 0.00,60.00,Thursday
24,288104527.54205656
768,96530625.0295071
4041,139956555.3125493
2,12, 1,12, 0,19, 0.00,60.00,Thursday
24,178270155.2149966