Program Version,EnergyPlus, Version 9.6.0-316f894e91, YMD=2026.02.17 17:11
1,5,Environment Title[],Latitude[deg],Longitude[deg],Time Zone[],Elevation[m]
2,8,Day of Simulation[],Month[],Day of Month[],DST Indicator[1=yes 0=no],Hour[],StartMinute[],EndMinute[],DayType
3,5,Cumulative Day of Simulation[],Month[],Day of Month[],DST Indicator[1=yes 0=no],DayType  ! When Daily Meters Requested
4,2,Cumulative Days of Simulation[],Month[]  ! When Monthly Meters Requested
5,1,Cumulative Days of Simulation[] ! When Run Period Meters Requested
6,1,Calendar Year of Simulation[] ! When Annual Meters Requested
24,1,Electricity:Facility [J] !Hourly
770,1,InteriorLights:Electricity [J] !Hourly
4043,1,InteriorEquipment:Electricity [J] !Hourly
End of Data Dictionary
1,SPAWN-RUNPERIOD,  41.98, -87.92,  -6.00, 201.00
2,1, 1, 1, 0, 1, 0.00,60.00,Holiday
24,45646440.98026964
770,6177960.0002742205
4043,30977340.979995452
2,1, 1, 1, 0, 2, 0.00,60.00,Holiday
24,45646440.98026964
770,6177960.0002742205
4043,30977340.979995452
2,1, 1, 1, 0, 3, 0.00,60.00,Holiday
24,45646440.98026964
770,6177960.0002742205
4043,30977340.979995452
2,1, 1, 1, 0, 4, 0.00,60.00,Holiday
24,45646440.98026964
770,6177960.0002742205
4043,30977340.979995452
2,1, 1, 1, 0, 5, 0.00,60.00,Holiday
24,45646440.98026964
770,6177960.0002742205
4043,30977340.979995452
2,1, 1, 1, 0, 6, 0.00,60.00,Holiday
24,45646440.98026964
770,6177960.0002742205
4043,30977340.979995452
2,1, 1, 1, 0, 7, 0.00,60.00,Holiday
24,62562447.62463712
770,5327413.064012469
4043,38383634.56062464
2,1, 1, 1, 0, 8, 0.00,60.00,Holiday
24,49799880.6613298
770,5132446.100705164
4043,38383634.56062464
2,1, 1, 1, 0, 9, 0.00,60.00,Holiday
24,42796328.31691021
770,4412693.756285579
4043,38383634.56062464
2,1, 1, 1, 0,10, 0.00,60.00,Holiday
24,42677869.19787823
770,4294234.6372535955
4043,38383634.56062464
2,1, 1, 1, 0,11, 0.00,60.00,Holiday
24,42617556.28191716
770,4233921.721292541
4043,38383634.56062464
2,1, 1, 1, 0,12, 0.00,60.00,Holiday
24,42645064.177732155
770,4261429.617107529
4043,38383634.56062464
2,1, 1, 1, 0,13, 0.00,60.00,Holiday
24,42703878.05957492
770,4320243.498950289
4043,38383634.56062464
2,1, 1, 1, 0,14, 0.00,60.00,Holiday
24,42761870.76013623
770,4378236.1995116025
4043,38383634.56062464
2,1, 1, 1, 0,15, 0.00,60.00,Holiday
24,42891951.019770905
770,4508316.459146279
4043,38383634.56062464
2,1, 1, 1, 0,16, 0.00,60.00,Holiday
24,43227635.58509136
770,4844001.02446673
4043,38383634.56062464
2,1, 1, 1, 0,17, 0.00,60.00,Holiday
24,56262495.23886335
770,5311260.678238708
4043,38383634.56062464
2,1, 1, 1, 0,18, 0.00,60.00,Holiday
24,62562447.62463712
770,5327413.064012469
4043,38383634.56062464
2,1, 1, 1, 0,19, 0.00,60.00,Holiday
24,56006700.9802697
770,6177960.0002742205
4043,30977340.979995452
2,1, 1, 1, 0,20, 0.00,60.00,Holiday
24,48191820.980269685
770,6177960.0002742205
4043,30977340.979995452
2,1, 1, 1, 0,21, 0.00,60.00,Holiday
24,48191820.980269685
770,6177960.0002742205
4043,30977340.979995452
2,1, 1, 1, 0,22, 0.00,60.00,Holiday
24,48191820.980269685
770,6177960.0002742205
4043,30977340.979995452
2,1, 1, 1, 0,23, 0.00,60.00,Holiday
24,48191820.980269685
770,6177960.0002742205
4043,30977340.979995452
2,1, 1, 1, 0,24, 0.00,60.00,Holiday
24,48191820.980269685
770,6177960.0002742205
4043,30977340.979995452
2,2, 1, 2, 0, 1, 0.00,60.00,Monday
24,55972221.30693479
770,6177960.0002742205
4043,41303121.306660585
2,2, 1, 2, 0, 2, 0.00,60.00,Monday
24,55972221.30693479
770,6177960.0002742205
4043,41303121.306660585
2,2, 1, 2, 0, 3, 0.00,60.00,Monday
24,55972221.30693479
770,6177960.0002742205
4043,41303121.306660585
2,2, 1, 2, 0, 4, 0.00,60.00,Monday
24,55972221.30693479
770,6177960.0002742205
4043,41303121.306660585
2,2, 1, 2, 0, 5, 0.00,60.00,Monday
24,55972221.30693479
770,6177960.0002742205
4043,41303121.306660585
2,2, 1, 2, 0, 6, 0.00,60.00,Monday
24,62150181.307209045
770,12355920.000548441
4043,41303121.306660585
2,2, 1, 2, 0, 7, 0.00,60.00,Monday
24,80684405.54219116
770,10654826.128024938
4043,51178179.4141662
2,2, 1, 2, 0, 8, 0.00,60.00,Monday
24,129832093.29338071
770,31754152.340752993
4043,91794140.95262778
2,2, 1, 2, 0, 9, 0.00,60.00,Monday
24,282660784.22192186
770,87438413.50708123
4043,195222370.7148409
2,2, 1, 2, 0,10, 0.00,60.00,Monday
24,246062278.77244994
770,81011765.20046617
4043,165050513.57198378
2,2, 1, 2, 0,11, 0.00,60.00,Monday
24,238340582.5624781
770,80252805.25423063
4043,158087777.30824754
2,2, 1, 2, 0,12, 0.00,60.00,Monday
24,244338139.48971862
770,79287625.9177349
4043,165050513.57198378
2,2, 1, 2, 0,13, 0.00,60.00,Monday
24,248215463.9649855
770,78552654.5872026
4043,169662809.3777829
2,2, 1, 2, 0,14, 0.00,60.00,Monday
24,250208755.0547694
770,79355961.26300544
4043,170852793.791764
2,2, 1, 2, 0,15, 0.00,60.00,Monday
24,239191303.87296325
770,81103526.5647158
4043,158087777.30824754
2,2, 1, 2, 0,16, 0.00,60.00,Monday
24,245331228.86458498
770,87243451.5563375
4043,158087777.30824754
2,2, 1, 2, 0,17, 0.00,60.00,Monday
24,276702173.9121484
770,95602692.20829672
4043,168531881.7038519
2,2, 1, 2, 0,18, 0.00,60.00,Monday
24,208046529.63310698
770,53274130.64012464
4043,135920998.9929825
2,2, 1, 2, 0,19, 0.00,60.00,Monday
24,115919530.32571356
770,31964478.384074815
4043,65103651.94163875
2,2, 1, 2, 0,20, 0.00,60.00,Monday
24,98821001.97406524
770,31964478.384074815
4043,55820003.58999038
2,2, 1, 2, 0,21, 0.00,60.00,Monday
24,88166175.84604028
770,21309652.256049875
4043,55820003.58999038
2,2, 1, 2, 0,22, 0.00,60.00,Monday
24,83524351.67021613
770,21309652.256049875
4043,51178179.4141662
2,2, 1, 2, 0,23, 0.00,60.00,Monday
24,72869525.54219118
770,10654826.128024938
4043,51178179.4141662
2,2, 1, 2, 0,24, 0.00,60.00,Monday
24,67542112.4781787
770,5327413.064012469
4043,51178179.4141662
2,3, 1, 3, 0, 1, 0.00,60.00,Tuesday
24,55972221.30693479
770,6177960.0002742205
4043,41303121.306660585
2,3, 1, 3, 0, 2, 0.00,60.00,Tuesday
24,55972221.30693479
770,6177960.0002742205
4043,41303121.306660585
2,3, 1, 3, 0, 3, 0.00,60.00,Tuesday
24,55972221.30693479
770,6177960.0002742205
4043,41303121.306660585
2,3, 1, 3, 0, 4, 0.00,60.00,Tuesday
24,55972221.30693479
770,6177960.0002742205
4043,41303121.306660585
2,3, 1, 3, 0, 5, 0.00,60.00,Tuesday
24,55972221.30693479
770,6177960.0002742205
4043,41303121.306660585
2,3, 1, 3, 0, 6, 0.00,60.00,Tuesday
24,62150181.307209045
770,12355920.000548441
4043,41303121.306660585
2,3, 1, 3, 0, 7, 0.00,60.00,Tuesday
24,80684405.54219116
770,10654826.128024938
4043,51178179.4141662
2,3, 1, 3, 0, 8, 0.00,60.00,Tuesday
24,129121343.490193
770,31043402.537565283
4043,91794140.95262778
2,3, 1, 3, 0, 9, 0.00,60.00,Tuesday
24,278269087.91535604
770,83046717.20051536
4043,195222370.7148409
2,3, 1, 3, 0,10, 0.00,60.00,Tuesday
24,244017043.76674712
770,78966530.19476339
4043,165050513.57198378
2,3, 1, 3, 0,11, 0.00,60.00,Tuesday
24,235534311.8776564
770,77446534.56940894
4043,158087777.30824754
2,3, 1, 3, 0,12, 0.00,60.00,Tuesday
24,242260147.28003666
770,77209633.70805295
4043,165050513.57198378
2,3, 1, 3, 0,13, 0.00,60.00,Tuesday
24,247356361.75310138
770,77693552.37531844
4043,169662809.3777829
2,3, 1, 3, 0,14, 0.00,60.00,Tuesday
24,248669468.3870856
770,77816674.59532161
4043,170852793.791764
2,3, 1, 3, 0,15, 0.00,60.00,Tuesday
24,238009813.83867186
770,79922036.53042442
4043,158087777.30824754
2,3, 1, 3, 0,16, 0.00,60.00,Tuesday
24,242551123.66568068
770,84463346.3574332
4043,158087777.30824754
2,3, 1, 3, 0,17, 0.00,60.00,Tuesday
24,275843240.81463605
770,94743759.11078432
4043,168531881.7038519
2,3, 1, 3, 0,18, 0.00,60.00,Tuesday
24,208046529.63310698
770,53274130.64012464
4043,135920998.9929825
2,3, 1, 3, 0,19, 0.00,60.00,Tuesday
24,115919530.32571356
770,31964478.384074815
4043,65103651.94163875
2,3, 1, 3, 0,20, 0.00,60.00,Tuesday
24,98821001.97406524
770,31964478.384074815
4043,55820003.58999038
2,3, 1, 3, 0,21, 0.00,60.00,Tuesday
24,88166175.84604028
770,21309652.256049875
4043,55820003.58999038
2,3, 1, 3, 0,22, 0.00,60.00,Tuesday
24,83524351.67021613
770,21309652.256049875
4043,51178179.4141662
2,3, 1, 3, 0,23, 0.00,60.00,Tuesday
24,72869525.54219118
770,10654826.128024938
4043,51178179.4141662
2,3, 1, 3, 0,24, 0.00,60.00,Tuesday
24,67542112.4781787
770,5327413.064012469
4043,51178179.4141662
2,4, 1, 4, 0, 1, 0.00,60.00,Wednesday
24,55972221.30693479
770,6177960.0002742205
4043,41303121.306660585
2,4, 1, 4, 0, 2, 0.00,60.00,Wednesday
24,55972221.30693479
770,6177960.0002742205
4043,41303121.306660585
2,4, 1, 4, 0, 3, 0.00,60.00,Wednesday
24,55972221.30693479
770,6177960.0002742205
4043,41303121.306660585
2,4, 1, 4, 0, 4, 0.00,60.00,Wednesday
24,55972221.30693479
770,6177960.0002742205
4043,41303121.306660585
2,4, 1, 4, 0, 5, 0.00,60.00,Wednesday
24,55972221.30693479
770,6177960.0002742205
4043,41303121.306660585
2,4, 1, 4, 0, 6, 0.00,60.00,Wednesday
24,62150181.307209045
770,12355920.000548441
4043,41303121.306660585
2,4, 1, 4, 0, 7, 0.00,60.00,Wednesday
24,80684405.54219116
770,10654826.128024938
4043,51178179.4141662
2,4, 1, 4, 0, 8, 0.00,60.00,Wednesday
24,129174722.1078326
770,31096781.155204892
4043,91794140.95262778
2,4, 1, 4, 0, 9, 0.00,60.00,Wednesday
24,279131906.51849777
770,83909535.80365708
4043,195222370.7148409
2,4, 1, 4, 0,10, 0.00,60.00,Wednesday
24,245546022.23676047
770,80495508.66477674
4043,165050513.57198378
2,4, 1, 4, 0,11, 0.00,60.00,Wednesday
24,236996200.54150558
770,78908423.23325816
4043,158087777.30824754
2,4, 1, 4, 0,12, 0.00,60.00,Wednesday
24,243464150.54944935
770,78413636.97746563
4043,165050513.57198378
2,4, 1, 4, 0,13, 0.00,60.00,Wednesday
24,248011780.36492613
770,78348970.9871432
4043,169662809.3777829
2,4, 1, 4, 0,14, 0.00,60.00,Wednesday
24,250365073.53993315
770,79512279.74816918
4043,170852793.791764
2,4, 1, 4, 0,15, 0.00,60.00,Wednesday
24,238730282.16175938
770,80642504.85351191
4043,158087777.30824754
2,4, 1, 4, 0,16, 0.00,60.00,Wednesday
24,244572727.66849124
770,86484950.3602438
4043,158087777.30824754
2,4, 1, 4, 0,17, 0.00,60.00,Wednesday
24,276342649.1829811
770,95243167.47912942
4043,168531881.7038519
2,4, 1, 4, 0,18, 0.00,60.00,Wednesday
24,208046529.63310698
770,53274130.64012464
4043,135920998.9929825
2,4, 1, 4, 0,19, 0.00,60.00,Wednesday
24,115919530.32571356
770,31964478.384074815
4043,65103651.94163875
2,4, 1, 4, 0,20, 0.00,60.00,Wednesday
24,98821001.97406524
770,31964478.384074815
4043,55820003.58999038
2,4, 1, 4, 0,21, 0.00,60.00,Wednesday
24,88166175.84604028
770,21309652.256049875
4043,55820003.58999038
2,4, 1, 4, 0,22, 0.00,60.00,Wednesday
24,83524351.67021613
770,21309652.256049875
4043,51178179.4141662
2,4, 1, 4, 0,23, 0.00,60.00,Wednesday
24,72869525.54219118
770,10654826.128024938
4043,51178179.4141662
2,4, 1, 4, 0,24, 0.00,60.00,Wednesday
24,67542112.4781787
770,5327413.064012469
4043,51178179.4141662
2,5, 1, 5, 0, 1, 0.00,60.00,Thursday
24,55972221.30693479
770,6177960.0002742205
4043,41303121.306660585
2,5, 1, 5, 0, 2, 0.00,60.00,Thursday
24,55972221.30693479
770,6177960.0002742205
4043,41303121.306660585
2,5, 1, 5, 0, 3, 0.00,60.00,Thursday
24,55972221.30693479
770,6177960.0002742205
4043,41303121.306660585
2,5, 1, 5, 0, 4, 0.00,60.00,Thursday
24,55972221.30693479
770,6177960.0002742205
4043,41303121.306660585
2,5, 1, 5, 0, 5, 0.00,60.00,Thursday
24,55972221.30693479
770,6177960.0002742205
4043,41303121.306660585
2,5, 1, 5, 0, 6, 0.00,60.00,Thursday
24,62150181.307209045
770,12355920.000548441
4043,41303121.306660585
2,5, 1, 5, 0, 7, 0.00,60.00,Thursday
24,80684405.54219116
770,10654826.128024938
4043,51178179.4141662
2,5, 1, 5, 0, 8, 0.00,60.00,Thursday
24,128512964.78360394
770,30435023.830976218
4043,91794140.95262778
2,5, 1, 5, 0, 9, 0.00,60.00,Thursday
24,274593350.894681
770,79370980.17984012
4043,195222370.7148409
2,5, 1, 5, 0,10, 0.00,60.00,Thursday
24,242400422.48159105
770,77349908.90960734
4043,165050513.57198378
2,5, 1, 5, 0,11, 0.00,60.00,Thursday
24,234315948.49972227
770,76228171.19147481
4043,158087777.30824754
2,5, 1, 5, 0,12, 0.00,60.00,Thursday
24,242316251.24176365
770,77265737.66977994
4043,165050513.57198378
2,5, 1, 5, 0,13, 0.00,60.00,Thursday
24,246848764.68280363
770,77185955.30502072
4043,169662809.3777829
2,5, 1, 5, 0,14, 0.00,60.00,Thursday
24,247625889.88810387
770,76773096.09633988
4043,170852793.791764
2,5, 1, 5, 0,15, 0.00,60.00,Thursday
24,235801228.49518543
770,77713451.18693802
4043,158087777.30824754
2,5, 1, 5, 0,16, 0.00,60.00,Thursday
24,240336752.22811383
770,82248974.9198664
4043,158087777.30824754
2,5, 1, 5, 0,17, 0.00,60.00,Thursday
24,275604043.1440197
770,94504561.44016802
4043,168531881.7038519
2,5, 1, 5, 0,18, 0.00,60.00,Thursday
24,208046529.63310698
770,53274130.64012464
4043,135920998.9929825
2,5, 1, 5, 0,19, 0.00,60.00,Thursday
24,115919530.32571356
770,31964478.384074815
4043,65103651.94163875
2,5, 1, 5, 0,20, 0.00,60.00,Thursday
24,98821001.97406524
770,31964478.384074815
4043,55820003.58999038
2,5, 1, 5, 0,21, 0.00,60.00,Thursday
24,88166175.84604028
770,21309652.256049875
4043,55820003.58999038
2,5, 1, 5, 0,22, 0.00,60.00,Thursday
24,83524351.67021613
770,21309652.256049875
4043,51178179.4141662
2,5, 1, 5, 0,23, 0.00,60.00,Thursday
24,72869525.54219118
770,10654826.128024938
4043,51178179.4141662
2,5, 1, 5, 0,24, 0.00,60.00,Thursday
24,67542112.4781787
770,5327413.064012469
4043,51178179.4141662
2,6, 1, 6, 0, 1, 0.00,60.00,Friday
24,55972221.30693479
770,6177960.0002742205
4043,41303121.306660585
2,6, 1, 6, 0, 2, 0.00,60.00,Friday
24,55972221.30693479
770,6177960.0002742205
4043,41303121.306660585
2,6, 1, 6, 0, 3, 0.00,60.00,Friday
24,55972221.30693479
770,6177960.0002742205
4043,41303121.306660585
2,6, 1, 6, 0, 4, 0.00,60.00,Friday
24,55972221.30693479
770,6177960.0002742205
4043,41303121.306660585
2,6, 1, 6, 0, 5, 0.00,60.00,Friday
24,55972221.30693479
770,6177960.0002742205
4043,41303121.306660585
2,6, 1, 6, 0, 6, 0.00,60.00,Friday
24,62150181.307209045
770,12355920.000548441
4043,41303121.306660585
2,6, 1, 6, 0, 7, 0.00,60.00,Friday
24,80684405.54219116
770,10654826.128024938
4043,51178179.4141662
2,6, 1, 6, 0, 8, 0.00,60.00,Friday
24,128585772.93084687
770,30507831.978219148
4043,91794140.95262778
2,6, 1, 6, 0, 9, 0.00,60.00,Friday
24,274465366.17517483
770,79242995.46033397
4043,195222370.7148409
2,6, 1, 6, 0,10, 0.00,60.00,Friday
24,242106457.66070503
770,77055944.08872136
4043,165050513.57198378
2,6, 1, 6, 0,11, 0.00,60.00,Friday
24,234509421.9338316
770,76421644.62558417
4043,158087777.30824754
2,6, 1, 6, 0,12, 0.00,60.00,Friday
24,243351965.149969
770,78301451.57798529
4043,165050513.57198378
2,6, 1, 6, 0,13, 0.00,60.00,Friday
24,247912204.41357502
770,78249395.03579211
4043,169662809.3777829
2,6, 1, 6, 0,14, 0.00,60.00,Friday
24,250755187.50202623
770,79902393.71026225
4043,170852793.791764
2,6, 1, 6, 0,15, 0.00,60.00,Friday
24,237323566.0743207
770,79235788.76607323
4043,158087777.30824754
2,6, 1, 6, 0,16, 0.00,60.00,Friday
24,240308117.58256838
770,82220340.27432092
4043,158087777.30824754
2,6, 1, 6, 0,17, 0.00,60.00,Friday
24,275556390.7786056
770,94456909.07475385
4043,168531881.7038519
2,6, 1, 6, 0,18, 0.00,60.00,Friday
24,208046529.63310698
770,53274130.64012464
4043,135920998.9929825
2,6, 1, 6, 0,19, 0.00,60.00,Friday
24,115919530.32571356
770,31964478.384074815
4043,65103651.94163875
2,6, 1, 6, 0,20, 0.00,60.00,Friday
24,98821001.97406524
770,31964478.384074815
4043,55820003.58999038
2,6, 1, 6, 0,21, 0.00,60.00,Friday
24,88166175.84604028
770,21309652.256049875
4043,55820003.58999038
2,6, 1, 6, 0,22, 0.00,60.00,Friday
24,83524351.67021613
770,21309652.256049875
4043,51178179.4141662
2,6, 1, 6, 0,23, 0.00,60.00,Friday
24,72869525.54219118
770,10654826.128024938
4043,51178179.4141662
2,6, 1, 6, 0,24, 0.00,60.00,Friday
24,67542112.4781787
770,5327413.064012469
4043,51178179.4141662
2,7, 1, 7, 0, 1, 0.00,60.00,Saturday
24,45646440.98026964
770,6177960.0002742205
4043,30977340.979995452
2,7, 1, 7, 0, 2, 0.00,60.00,Saturday
24,45646440.98026964
770,6177960.0002742205
4043,30977340.979995452
2,7, 1, 7, 0, 3, 0.00,60.00,Saturday
24,45646440.98026964
770,6177960.0002742205
4043,30977340.979995452
2,7, 1, 7, 0, 4, 0.00,60.00,Saturday
24,45646440.98026964
770,6177960.0002742205
4043,30977340.979995452
2,7, 1, 7, 0, 5, 0.00,60.00,Saturday
24,45646440.98026964
770,6177960.0002742205
4043,30977340.979995452
2,7, 1, 7, 0, 6, 0.00,60.00,Saturday
24,45646440.98026964
770,6177960.0002742205
4043,30977340.979995452
2,7, 1, 7, 0, 7, 0.00,60.00,Saturday
24,80684405.54219116
770,10654826.128024938
4043,51178179.4141662
2,7, 1, 7, 0, 8, 0.00,60.00,Saturday
24,86129363.60047182
770,10100087.483008888
4043,69745476.11746293
2,7, 1, 7, 0, 9, 0.00,60.00,Saturday
24,106879809.64239588
770,26660700.7593035
4043,80219108.8830924
2,7, 1, 7, 0,10, 0.00,60.00,Saturday
24,114184775.43532053
770,25842474.24453582
4043,88342301.1907847
2,7, 1, 7, 0,11, 0.00,60.00,Saturday
24,110463512.06806561
770,25602579.00914906
4043,84860933.05891657
2,7, 1, 7, 0,12, 0.00,60.00,Saturday
24,118827302.67885086
770,25843177.31224197
4043,92984125.36660889
2,7, 1, 7, 0,13, 0.00,60.00,Saturday
24,82080240.35714516
770,12929756.44667273
4043,69150483.91047238
2,7, 1, 7, 0,14, 0.00,60.00,Saturday
24,72748961.11031468
770,12882125.55149066
4043,59866835.558823995
2,7, 1, 7, 0,15, 0.00,60.00,Saturday
24,67124046.04766428
770,13059490.708620481
4043,54064555.33904376
2,7, 1, 7, 0,16, 0.00,60.00,Saturday
24,63002629.79298444
770,13579898.629764827
4043,49422731.16321959
2,7, 1, 7, 0,17, 0.00,60.00,Saturday
24,75606700.65815872
770,15597813.450983029
4043,50583187.207175635
2,7, 1, 7, 0,18, 0.00,60.00,Saturday
24,69525183.88837339
770,5327413.064012469
4043,45346370.82436088
2,7, 1, 7, 0,19, 0.00,60.00,Saturday
24,62562447.62463712
770,5327413.064012469
4043,38383634.56062464
2,7, 1, 7, 0,20, 0.00,60.00,Saturday
24,48191820.980269685
770,6177960.0002742205
4043,30977340.979995452
2,7, 1, 7, 0,21, 0.00,60.00,Saturday
24,48191820.980269685
770,6177960.0002742205
4043,30977340.979995452
2,7, 1, 7, 0,22, 0.00,60.00,Saturday
24,48191820.980269685
770,6177960.0002742205
4043,30977340.979995452
2,7, 1, 7, 0,23, 0.00,60.00,Saturday
24,48191820.980269685
770,6177960.0002742205
4043,30977340.979995452
2,7, 1, 7, 0,24, 0.00,60.00,Saturday
24,48191820.980269685
770,6177960.0002742205
4043,30977340.979995452
2,8, 1, 8, 0, 1, 0.00,60.00,Sunday
24,45646440.98026964
770,6177960.0002742205
4043,30977340.979995452
2,8, 1, 8, 0, 2, 0.00,60.00,Sunday
24,45646440.98026964
770,6177960.0002742205
4043,30977340.979995452
2,8, 1, 8, 0, 3, 0.00,60.00,Sunday
24,45646440.98026964
770,6177960.0002742205
4043,30977340.979995452
2,8, 1, 8, 0, 4, 0.00,60.00,Sunday
24,45646440.98026964
770,6177960.0002742205
4043,30977340.979995452
2,8, 1, 8, 0, 5, 0.00,60.00,Sunday
24,45646440.98026964
770,6177960.0002742205
4043,30977340.979995452
2,8, 1, 8, 0, 6, 0.00,60.00,Sunday
24,45646440.98026964
770,6177960.0002742205
4043,30977340.979995452
2,8, 1, 8, 0, 7, 0.00,60.00,Sunday
24,62562447.62463712
770,5327413.064012469
4043,38383634.56062464
2,8, 1, 8, 0, 8, 0.00,60.00,Sunday
24,49713746.07540192
770,5046311.514777287
4043,38383634.56062464
2,8, 1, 8, 0, 9, 0.00,60.00,Sunday
24,42803163.82103474
770,4419529.260410111
4043,38383634.56062464
2,8, 1, 8, 0,10, 0.00,60.00,Sunday
24,42666789.79437191
770,4283155.233747283
4043,38383634.56062464
2,8, 1, 8, 0,11, 0.00,60.00,Sunday
24,42615095.5386058
770,4231460.977981176
4043,38383634.56062464
2,8, 1, 8, 0,12, 0.00,60.00,Sunday
24,42600174.135629505
770,4216539.575004882
4043,38383634.56062464
2,8, 1, 8, 0,13, 0.00,60.00,Sunday
24,42645391.876656726
770,4261757.316032098
4043,38383634.56062464
2,8, 1, 8, 0,14, 0.00,60.00,Sunday
24,42653292.084806904
770,4269657.524182281
4043,38383634.56062464
2,8, 1, 8, 0,15, 0.00,60.00,Sunday
24,42713824.04514683
770,4330189.484522207
4043,38383634.56062464
2,8, 1, 8, 0,16, 0.00,60.00,Sunday
24,42907632.014332555
770,4523997.453707925
4043,38383634.56062464
2,8, 1, 8, 0,17, 0.00,60.00,Sunday
24,52996557.622000486
770,5187223.061375841
4043,38383634.56062464
2,8, 1, 8, 0,18, 0.00,60.00,Sunday
24,62562447.62463712
770,5327413.064012469
4043,38383634.56062464
2,8, 1, 8, 0,19, 0.00,60.00,Sunday
24,56006700.9802697
770,6177960.0002742205
4043,30977340.979995452
2,8, 1, 8, 0,20, 0.00,60.00,Sunday
24,48191820.980269685
770,6177960.0002742205
4043,30977340.979995452
2,8, 1, 8, 0,21, 0.00,60.00,Sunday
24,48191820.980269685
770,6177960.0002742205
4043,30977340.979995452
2,8, 1, 8, 0,22, 0.00,60.00,Sunday
24,48191820.980269685
770,6177960.0002742205
4043,30977340.979995452
2,8, 1, 8, 0,23, 0.00,60.00,Sunday
24,48191820.980269685
770,6177960.0002742205
4043,30977340.979995452
2,8, 1, 8, 0,24, 0.00,60.00,Sunday
24,48191820.980269685
770,6177960.0002742205
4043,30977340.979995452
2,9, 1, 9, 0, 1, 0.00,60.00,Monday
24,55972221.30693479
770,6177960.0002742205
4043,41303121.306660585
2,9, 1, 9, 0, 2, 0.00,60.00,Monday
24,55972221.30693479
770,6177960.0002742205
4043,41303121.306660585
2,9, 1, 9, 0, 3, 0.00,60.00,Monday
24,55972221.30693479
770,6177960.0002742205
4043,41303121.306660585
2,9, 1, 9, 0, 4, 0.00,60.00,Monday
24,55972221.30693479
770,6177960.0002742205
4043,41303121.306660585
2,9, 1, 9, 0, 5, 0.00,60.00,Monday
24,55972221.30693479
770,6177960.0002742205
4043,41303121.306660585
2,9, 1, 9, 0, 6, 0.00,60.00,Monday
24,62150181.307209045
770,12355920.000548441
4043,41303121.306660585
2,9, 1, 9, 0, 7, 0.00,60.00,Monday
24,80684405.54219116
770,10654826.128024938
4043,51178179.4141662
2,9, 1, 9, 0, 8, 0.00,60.00,Monday
24,129023192.61444166
770,30945251.66181396
4043,91794140.95262778
2,9, 1, 9, 0, 9, 0.00,60.00,Monday
24,276082313.57443625
770,80859942.85959548
4043,195222370.7148409
2,9, 1, 9, 0,10, 0.00,60.00,Monday
24,241805774.73276234
770,76755261.16077861
4043,165050513.57198378
2,9, 1, 9, 0,11, 0.00,60.00,Monday
24,234151816.77889922
770,76064039.4706518
4043,158087777.30824754
2,9, 1, 9, 0,12, 0.00,60.00,Monday
24,241260405.63256732
770,76209892.06058362
4043,165050513.57198378
2,9, 1, 9, 0,13, 0.00,60.00,Monday
24,245833487.09035042
770,76170677.71256748
4043,169662809.3777829
2,9, 1, 9, 0,14, 0.00,60.00,Monday
24,247608309.67989472
770,76755515.88813074
4043,170852793.791764
2,9, 1, 9, 0,15, 0.00,60.00,Monday
24,235836388.91160375
770,77748611.60335632
4043,158087777.30824754
2,9, 1, 9, 0,16, 0.00,60.00,Monday
24,239816713.89446196
770,81728936.58621451
4043,158087777.30824754
2,9, 1, 9, 0,17, 0.00,60.00,Monday
24,272472210.59317386
770,94514628.8893221
4043,168531881.7038519
2,9, 1, 9, 0,18, 0.00,60.00,Monday
24,208046529.63310698
770,53274130.64012464
4043,135920998.9929825
2,9, 1, 9, 0,19, 0.00,60.00,Monday
24,115919530.32571356
770,31964478.384074815
4043,65103651.94163875
2,9, 1, 9, 0,20, 0.00,60.00,Monday
24,98821001.97406524
770,31964478.384074815
4043,55820003.58999038
2,9, 1, 9, 0,21, 0.00,60.00,Monday
24,88166175.84604028
770,21309652.256049875
4043,55820003.58999038
2,9, 1, 9, 0,22, 0.00,60.00,Monday
24,83524351.67021613
770,21309652.256049875
4043,51178179.4141662
2,9, 1, 9, 0,23, 0.00,60.00,Monday
24,72869525.54219118
770,10654826.128024938
4043,51178179.4141662
2,9, 1, 9, 0,24, 0.00,60.00,Monday
24,67542112.4781787
770,5327413.064012469
4043,51178179.4141662
2,10, 1,10, 0, 1, 0.00,60.00,Tuesday
24,55972221.30693479
770,6177960.0002742205
4043,41303121.306660585
2,10, 1,10, 0, 2, 0.00,60.00,Tuesday
24,55972221.30693479
770,6177960.0002742205
4043,41303121.306660585
2,10, 1,10, 0, 3, 0.00,60.00,Tuesday
24,55972221.30693479
770,6177960.0002742205
4043,41303121.306660585
2,10, 1,10, 0, 4, 0.00,60.00,Tuesday
24,55972221.30693479
770,6177960.0002742205
4043,41303121.306660585
2,10, 1,10, 0, 5, 0.00,60.00,Tuesday
24,55972221.30693479
770,6177960.0002742205
4043,41303121.306660585
2,10, 1,10, 0, 6, 0.00,60.00,Tuesday
24,62150181.307209045
770,12355920.000548441
4043,41303121.306660585
2,10, 1,10, 0, 7, 0.00,60.00,Tuesday
24,80684405.54219116
770,10654826.128024938
4043,51178179.4141662
2,10, 1,10, 0, 8, 0.00,60.00,Tuesday
24,128585772.93084687
770,30507831.978219148
4043,91794140.95262778
2,10, 1,10, 0, 9, 0.00,60.00,Tuesday
24,274512743.0244821
770,79290372.30964118
4043,195222370.7148409
2,10, 1,10, 0,10, 0.00,60.00,Tuesday
24,242129968.3428967
770,77079454.77091295
4043,165050513.57198378
2,10, 1,10, 0,11, 0.00,60.00,Tuesday
24,234298368.29151314
770,76210590.98326565
4043,158087777.30824754
2,10, 1,10, 0,12, 0.00,60.00,Tuesday
24,242231854.90480277
770,77181341.33281906
4043,165050513.57198378
2,10, 1,10, 0,13, 0.00,60.00,Tuesday
24,246677574.90567473
770,77014765.52789178
4043,169662809.3777829
2,10, 1,10, 0,14, 0.00,60.00,Tuesday
24,247590668.70914644
770,76737874.91738246
4043,170852793.791764
2,10, 1,10, 0,15, 0.00,60.00,Tuesday
24,235886411.62131822
770,77798634.31307079
4043,158087777.30824754
2,10, 1,10, 0,16, 0.00,60.00,Tuesday
24,239043921.5728786
770,80956144.26463115
4043,158087777.30824754
2,10, 1,10, 0,17, 0.00,60.00,Tuesday
24,271352254.17887074
770,93394672.47501901
4043,168531881.7038519
2,10, 1,10, 0,18, 0.00,60.00,Tuesday
24,208046529.63310698
770,53274130.64012464
4043,135920998.9929825
2,10, 1,10, 0,19, 0.00,60.00,Tuesday
24,115919530.32571356
770,31964478.384074815
4043,65103651.94163875
2,10, 1,10, 0,20, 0.00,60.00,Tuesday
24,98821001.97406524
770,31964478.384074815
4043,55820003.58999038
2,10, 1,10, 0,21, 0.00,60.00,Tuesday
24,88166175.84604028
770,21309652.256049875
4043,55820003.58999038
2,10, 1,10, 0,22, 0.00,60.00,Tuesday
24,83524351.67021613
770,21309652.256049875
4043,51178179.4141662
2,10, 1,10, 0,23, 0.00,60.00,Tuesday
24,72869525.54219118
770,10654826.128024938
4043,51178179.4141662
2,10, 1,10, 0,24, 0.00,60.00,Tuesday
24,67542112.4781787
770,5327413.064012469
4043,51178179.4141662
2,11, 1,11, 0, 1, 0.00,60.00,Wednesday
24,55972221.30693479
770,6177960.0002742205
4043,41303121.306660585
2,11, 1,11, 0, 2, 0.00,60.00,Wednesday
24,55972221.30693479
770,6177960.0002742205
4043,41303121.306660585
2,11, 1,11, 0, 3, 0.00,60.00,Wednesday
24,55972221.30693479
770,6177960.0002742205
4043,41303121.306660585
2,11, 1,11, 0, 4, 0.00,60.00,Wednesday
24,55972221.30693479
770,6177960.0002742205
4043,41303121.306660585
2,11, 1,11, 0, 5, 0.00,60.00,Wednesday
24,55972221.30693479
770,6177960.0002742205
4043,41303121.306660585
2,11, 1,11, 0, 6, 0.00,60.00,Wednesday
24,62150181.307209045
770,12355920.000548441
4043,41303121.306660585
2,11, 1,11, 0, 7, 0.00,60.00,Wednesday
24,80684405.54219116
770,10654826.128024938
4043,51178179.4141662
2,11, 1,11, 0, 8, 0.00,60.00,Wednesday
24,129660757.60805546
770,31582816.65542775
4043,91794140.95262778
2,11, 1,11, 0, 9, 0.00,60.00,Wednesday
24,280350825.302257
770,85128454.58741629
4043,195222370.7148409
2,11, 1,11, 0,10, 0.00,60.00,Wednesday
24,244371817.04308596
770,79321303.47110227
4043,165050513.57198378
2,11, 1,11, 0,11, 0.00,60.00,Wednesday
24,235855844.37217146
770,77768067.063924
4043,158087777.30824754
2,11, 1,11, 0,12, 0.00,60.00,Wednesday
24,241616001.485353
770,76565487.91336925
4043,165050513.57198378
2,11, 1,11, 0,13, 0.00,60.00,Wednesday
24,246079765.6109001
770,76416956.23311715
4043,169662809.3777829
2,11, 1,11, 0,14, 0.00,60.00,Wednesday
24,247590668.70914644
770,76737874.91738246
4043,170852793.791764
2,11, 1,11, 0,15, 0.00,60.00,Wednesday
24,236031188.02964714
770,77943410.72139966
4043,158087777.30824754
2,11, 1,11, 0,16, 0.00,60.00,Wednesday
24,239451208.56893784
770,81363431.2606904
4043,158087777.30824754
2,11, 1,11, 0,17, 0.00,60.00,Wednesday
24,270987761.38382536
770,93030179.67997363
4043,168531881.7038519
2,11, 1,11, 0,18, 0.00,60.00,Wednesday
24,208046529.63310698
770,53274130.64012464
4043,135920998.9929825
2,11, 1,11, 0,19, 0.00,60.00,Wednesday
24,115919530.32571356
770,31964478.384074815
4043,65103651.94163875
2,11, 1,11, 0,20, 0.00,60.00,Wednesday
24,98821001.97406524
770,31964478.384074815
4043,55820003.58999038
2,11, 1,11, 0,21, 0.00,60.00,Wednesday
24,88166175.84604028
770,21309652.256049875
4043,55820003.58999038
2,11, 1,11, 0,22, 0.00,60.00,Wednesday
24,83524351.67021613
770,21309652.256049875
4043,51178179.4141662
2,11, 1,11, 0,23, 0.00,60.00,Wednesday
24,72869525.54219118
770,10654826.128024938
4043,51178179.4141662
2,11, 1,11, 0,24, 0.00,60.00,Wednesday
24,67542112.4781787
770,5327413.064012469
4043,51178179.4141662
2,12, 1,12, 0, 1, 0.00,60.00,Thursday
24,55972221.30693479
770,6177960.0002742205
4043,41303121.306660585
2,12, 1,12, 0, 2, 0.00,60.00,Thursday
24,55972221.30693479
770,6177960.0002742205
4043,41303121.306660585
2,12, 1,12, 0, 3, 0.00,60.00,Thursday
24,55972221.30693479
770,6177960.0002742205
4043,41303121.306660585
2,12, 1,12, 0, 4, 0.00,60.00,Thursday
24,55972221.30693479
770,6177960.0002742205
4043,41303121.306660585
2,12, 1,12, 0, 5, 0.00,60.00,Thursday
24,55972221.30693479
770,6177960.0002742205
4043,41303121.306660585
2,12, 1,12, 0, 6, 0.00,60.00,Thursday
24,62150181.307209045
770,12355920.000548441
4043,41303121.306660585
2,12, 1,12, 0, 7, 0.00,60.00,Thursday
24,80684405.54219116
770,10654826.128024938
4043,51178179.4141662
2,12, 1,12, 0, 8, 0.00,60.00,Thursday
24,128693432.07422546
770,30615491.12159774
4043,91794140.95262778
2,12, 1,12, 0, 9, 0.00,60.00,Thursday
24,277239432.4130386
770,82017061.69819786
4043,195222370.7148409
2,12, 1,12, 0,10, 0.00,60.00,Thursday
24,248071630.5762726
770,83021117.00428885
4043,165050513.57198378
2,12, 1,12, 0,11, 0.00,60.00,Thursday
24,238831268.8785816
770,80743491.57033414
4043,158087777.30824754
2,12, 1,12, 0,12, 0.00,60.00,Thursday
24,245006302.46622846
770,79955788.89424475
4043,165050513.57198378
2,12, 1,12, 0,13, 0.00,60.00,Thursday
24,248835673.2909305
770,79172863.91314761
4043,169662809.3777829
2,12, 1,12, 0,14, 0.00,60.00,Thursday
24,250207187.84981936
770,79354394.05805537
4043,170852793.791764
2,12, 1,12, 0,15, 0.00,60.00,Thursday
24,239478677.77405116
770,81390900.4658037
4043,158087777.30824754
2,12, 1,12, 0,16, 0.00,60.00,Thursday
24,245106794.6605382
770,87019017.35229072
4043,158087777.30824754
2,12, 1,12, 0,17, 0.00,60.00,Thursday
24,273338313.07713836
770,95380731.3732866
4043,168531881.7038519
2,12, 1,12, 0,18, 0.00,60.00,Thursday
24,208046529.63310698